56
Lattice="10.04123401 0.0 0.0 0.0 10.04123401 0.0 0.0 0.0 10.04123401" Properties=species:S:1:pos:R:3 Time=1000.0 virial="-16.54600635 -3.04651752 -2.46234897 -3.04651752 -10.03990811 -5.36484303 -2.46234897 -5.36484303 -11.68384633" energy=-305.70028122 stress="-0.0098107 -0.00285024 -0.00262765 -0.00285024 -0.00286941 -0.00512876 -0.00262765 -0.00512876 -0.00509448" pbc="T T T"
Na       2.06977326       4.24504111       6.84564138
Na       3.40903149       5.23844563       3.80723287
Na       9.09505324       9.38766784       6.48856315
Na       5.23961120       2.94517312       2.21927070
Na       8.33158089       4.88047384       0.04308245
Na       3.07784638       2.49247320       0.48180032
Na       8.59755277       6.83607663       3.74034909
Na       2.92746277       0.20427544       2.64991929
Na       9.34115073       1.54538461       0.03839805
Na       1.25983470       0.19009827       5.00706088
Na       8.63065040       2.41023155       5.96134026
Na       5.78479403       0.62149705       6.61560262
Na       1.03731609       6.72848248       4.79753389
Na       8.67785141       3.65748976       3.10737722
Na       0.63031288       9.18443224       0.37819282
Na       3.93722117       6.63053359       0.59022428
Na       3.84325658       8.95604750       9.02963708
Na       5.97385743       7.79986542       6.32517918
Na       7.36577218       8.72782294       0.67693755
Na       5.94613314       2.41860635       9.36116094
Na       9.42048109       7.55156059       8.78894835
F        8.81330576       9.68098401       8.89660189
F        4.73356671       3.85647222       0.40825480
F        5.82640732       4.78730162       3.49732839
F        8.02996868       2.86771764       0.84692311
F        7.16096783       1.76264748       7.99489553
F        3.24888128       0.50809314       0.85244930
F        6.05998704       8.97956812       8.38790399
C        5.41077131       8.38610947       3.46441927
O        5.62510664       8.45317917       2.20523894
O        6.20607767       8.84696909       4.29619697
O        4.22079101       7.91740678       3.71762245
C        8.82800308       9.87863577       3.63288939
O        8.28104162       9.99666026       2.49586030
O        9.48305840       8.88619518       4.01837441
O        8.84892431       0.86950475       4.41757541
C        0.26147159       6.52933693       2.17285611
O        9.32500241       6.94359627       1.40659731
O        0.12972780       5.33638554       2.63843665
O        1.40440704       7.36237756       2.26967288
C        2.20580914       2.84636264       3.57085802
O        3.20436258       3.00395775       2.67997126
O        1.33425673       1.76266346       3.55583661
O        1.78796136       3.79519556       4.36886623
C        8.17192990       6.02581091       6.52253454
O        8.53614887       7.27560908       6.10237099
O        7.48851345       5.85705716       7.51409535
O        8.58613959       5.20604031       5.62730105
C        1.93152497       7.66147589       7.49487511
O        1.56297732       6.45917703       7.22810979
O        1.29346039       8.32844464       8.45789192
O        2.68008476       8.13946373       6.57395844
C        2.39612081       1.65069636       7.66425611
O        3.40433929       0.97234974       7.95211320
O        1.99185781       2.77527025       8.44834348
O        1.58868562       1.42620710       6.69682937
56
Lattice="10.02558526 0.0 0.0 0.0 10.02558526 0.0 0.0 0.0 10.02558526" Properties=species:S:1:pos:R:3 Time=2000.0 virial="-16.79643136 -8.07952582 1.10276259 -8.07952582 -13.53128909 6.25033661 1.10276259 6.25033661 -8.89610774" energy=-304.34727312 stress="-0.00932574 -0.00759522 0.00207067 -0.00759522 -0.00834333 0.00691863 0.00207067 0.00691863 -0.00119096" pbc="T T T"
Na       0.57555751       3.14079572       1.85935499
Na       3.91096653       5.95619536       1.24446962
Na       0.79293422       8.60070163       6.01285318
Na       5.74627461       1.67986228       2.17820700
Na       8.10456256       5.09442314       1.14638668
Na       2.86917497       1.28431557       0.47119072
Na       9.08501673       7.08259190       4.08550178
Na       2.98481344       2.31619107       5.77521812
Na       8.87413779       0.84648507       9.34898346
Na       4.56554123       0.03953232       9.05805407
Na       9.71235242       4.51970802       8.87631408
Na       4.32930789       9.78040315       5.69564094
Na       2.95263710       5.85153134       4.19379100
Na       9.71098325       3.69336309       5.22416607
Na       9.97163225       7.40859646       9.34115805
Na       6.72018326       8.68103488       7.29120373
Na       5.36252388       3.29365287       5.76346248
Na       6.36948574       7.41329901       3.39959054
Na       0.47676960       0.08788896       2.48633409
Na       6.17337198       2.63096086       8.43109731
Na       6.89398416       7.44532874       9.23100275
F        8.40601974       9.05036882       8.42218896
F        4.87160676       2.64523968       0.40912491
F        6.23510935       6.29445385       1.72300823
F        8.21362021       3.11151574       9.69168449
F        6.59821856       0.35394576       9.99054198
F        0.78873274       1.67603352       0.58346429
F        5.77312699       0.81938195       7.27849096
C        3.21364318       9.27099201       3.33883441
O        2.76431726       9.73055176       2.24803688
O        2.54381127       9.50055580       4.39168163
O        4.06026867       8.35571333       3.32073628
C        8.21159088       0.38419767       3.82350480
O        8.06351013       0.42379575       2.54599338
O        7.58831484       1.32811239       4.37125367
O        8.90574870       9.44037382       4.34016018
C        0.45184738       6.14689391       2.20804421
O        9.97890051       7.27626613       1.76390460
O        9.61672650       5.21326444       2.57235945
O        1.68480224       5.91890690       2.17898183
C        3.32829907       2.87614492       3.21752588
O        3.95352280       3.69218006       2.24336957
O        4.30848736       2.20406389       3.89823687
O        2.18996688       2.98952127       3.66671273
C        7.32406633       5.64608549       6.58586697
O        7.38635203       6.85141653       5.86155005
O        7.52635858       5.80819416       7.95941149
O        7.30523446       4.44254954       6.06800147
C        1.32028804       6.22064528       6.37751496
O        1.11736349       5.25159931       5.68520508
O        0.65375510       6.69440226       7.41483176
O        2.55493974       6.99521468       5.97306638
C        1.35947847       0.20387397       7.99187924
O        0.38984117       0.70320169       7.25082026
O        2.65401768       0.77421286       8.00424331
O        1.10116090       9.26131379       8.62935320
56
Lattice="10.09954572 0.0 0.0 0.0 10.09954572 0.0 0.0 0.0 10.09954572" Properties=species:S:1:pos:R:3 Time=4000.0 virial="-7.82842113 0.4269298 -3.0214456 0.4269298 -12.78504223 3.51606166 -3.0214456 3.51606166 -16.83053371" energy=-306.61362261 stress="5.04e-05 0.00224567 -0.00243256 0.00224567 -0.00451859 0.00479365 -0.00243256 0.00479365 -0.0067748" pbc="T T T"
Na       8.49378002       1.01103050       0.47598660
Na       8.12558089       4.06531223       8.97431957
Na       1.58015454       9.43773741       5.85176366
Na       1.97906772       6.51084727       9.27318164
Na       7.07413697       8.01678001       8.38643857
Na       1.49983236       3.54420541       0.47420443
Na       0.16358792       6.99982742       5.46084910
Na       1.63179722       3.11291249       4.03508894
Na       5.95932314       4.05804741       1.96974692
Na       5.32535172       1.15537094       1.77353835
Na       0.17545022       3.27816944       7.07707749
Na       5.08890501       6.26333318       4.72366484
Na       2.27901330       6.18824987       2.52671581
Na       5.09643207       9.74726527       5.87858121
Na       2.38173609       1.55704544       8.68218075
Na       9.61265312       9.71891195       7.80932831
Na       5.21905057       1.82155174       8.72496235
Na       9.33550939       4.17498088       3.15894175
Na       1.63499231       0.28239748       1.49735270
Na       4.73100718       5.69046774       8.44049771
Na       7.60809893       1.14216210       6.72906273
F        7.84312959       0.03160808       8.45133318
F        3.47885085       2.12227842       0.60967988
F        0.04652089       2.15426013       2.05325823
F        3.46692682       5.38434464       0.42637209
F        9.87837825       2.79775306       9.42834041
F        1.01405895       0.78348476       7.30320418
F        6.89620438       2.43955644       9.94358817
C        3.03702841       9.12350501       3.31236003
O        2.15592501       9.87972983       3.73177968
O        2.65467685       8.34189077       2.27968791
O        4.25579078       9.01944626       3.73084438
C        8.71750233       9.39069414       4.71007842
O        8.98500681       9.63011440       3.49844036
O        7.46057406       9.66075756       5.10843679
O        9.58004883       9.07404219       5.54620072
C        9.20289326       6.37473181       1.19909868
O        8.30267355       7.10882272       0.69356499
O        9.56638718       6.31942174       2.40644889
O        9.71642609       5.58755183       0.25652407
C        4.59525146       2.40361321       4.13554648
O        4.68855351       1.66688427       5.22479456
O        3.74888346       2.03955324       3.20744732
O        5.22138716       3.44094252       4.00843699
C        7.68635506       4.58861606       6.37607953
O        8.41872241       5.39614980       5.75982845
O        6.54396219       5.14339672       6.79547237
O        7.97229529       3.32509864       6.89638647
C        2.08955277       5.73955745       6.01993407
O        2.53551339       5.49743852       7.21504728
O        2.32514911       6.76540116       5.22775603
O        1.14860839       4.72238493       5.42059307
C        3.93237667       9.28462669       8.11897978
O        4.22521815       0.45563137       7.87212922
O        3.05604919       8.85694727       8.97615348
O        4.58877040       8.43715638       7.42052205
56
Lattice="9.74112482 0.0 0.0 0.0 9.74112482 0.0 0.0 0.0 9.74112482" Properties=species:S:1:pos:R:3 Time=7000.0 virial="-0.09739524 -5.48196836 -5.90436024 -5.48196836 -23.22778515 3.320758 -5.90436024 3.320758 -21.45553647" energy=-305.70411999 stress="0.00722472 -0.00600623 -0.00763626 -0.00600623 -0.01739527 0.0028743 -0.00763626 0.0028743 -0.01365521" pbc="T T T"
Na       8.51583360       2.55502710       5.32864429
Na       5.58119476       9.23326725       2.08573808
Na       5.66871007       9.06022154       6.94963851
Na       3.27200304       7.48145525       3.10739486
Na       6.56135390       4.62471442       7.58039069
Na       9.08920085       6.06015804       0.55272606
Na       7.97777069       9.02822471       5.41499728
Na       1.45554502       6.68801738       8.02849269
Na       1.60977910       0.92210603       1.14686184
Na       5.66370044       1.88570047       4.78200440
Na       1.93699882       3.85852983       4.88711404
Na       7.36308861       2.92036886       1.32830976
Na       1.53787134       0.59253368       6.49385061
Na       0.98869972       3.79317506       1.55933695
Na       1.14417320       8.18996471       3.58825433
Na       8.98695662       4.30095572       7.37354270
Na       3.44351356       8.39981114       9.62966612
Na       4.80161997       2.36228696       9.12261364
Na       8.96466769       0.96443885       8.31540302
Na       2.16237965       2.53867570       8.83133259
Na       5.82076705       6.12828066       3.23660133
F        3.86368619       0.32544822       0.89660243
F        1.54044907       6.97492880       0.57939340
F        9.05537220       4.02391648       9.51824449
F        0.42655589       2.66362363       6.69873930
F        6.50470890       3.34115591       9.16922768
F        6.93065935       1.35329437       6.44057998
F        1.80094285       0.50645460       8.70810568
C        3.49666030       0.48163409       4.25943986
O        2.43734353       0.00163683       3.58710326
O        4.67443915       9.63829965       4.16360504
O        3.32483573       1.26374726       5.36638535
C        8.81071840       7.83828352       7.73145592
O        0.27342609       8.29995136       7.52835034
O        7.84709879       8.66991396       7.85940820
O        8.53035581       6.43640035       7.91353478
C        8.79708723       0.96842932       3.14720897
O        9.56795166       1.56720821       2.17601067
O        7.62389747       1.30998185       3.21953263
O        9.29454919       9.60873398       3.84321035
C        9.53399298       5.55087769       4.03131623
O        0.20437700       4.97639100       2.94060762
O        0.29080101       6.64122315       4.75127615
O        8.51053241       4.99049717       4.70781237
C        5.99874913       6.84262794       0.31185869
O        5.80855917       6.42481541       8.82543293
O        6.97894830       7.34522944       0.90299859
O        4.96592469       6.83601878       1.28721774
C        3.59767362       4.21087743       1.87418535
O        3.03330471       3.87769499       0.77115506
O        4.82328503       3.79724821       2.31780492
O        2.83994940       4.72680638       2.67986974
C        4.41292104       6.41133484       5.89845044
O        4.78339240       7.34482697       4.90999990
O        4.84938422       5.20938919       6.11058805
O        3.48160648       6.94896407       6.53949222
56
Lattice="9.8005908 0.0 0.0 0.0 9.8005908 0.0 0.0 0.0 9.8005908" Properties=species:S:1:pos:R:3 Time=8000.0 virial="5.33861453 6.75988766 0.40129585 6.75988766 -22.42457232 -3.47618606 0.40129585 -3.47618606 -8.94932513" energy=-304.61647082 stress="0.01018539 0.00704761 0.00201398 0.00704761 -0.01594815 -0.0046678 0.00201398 -0.0046678 -0.00295661" pbc="T T T"
Na       9.75867660       1.99757553       5.63922816
Na       6.85539176       8.76691286       4.81867549
Na       4.56258922       7.20649160       8.70017476
Na       3.80849762       8.18298137       4.88283244
Na       6.62600634       6.29952343       7.32049885
Na       1.03902910       7.34692764       8.66207991
Na       8.78554787       0.25025626       2.41972175
Na       4.69207553       3.04818301       8.77311304
Na       2.70159326       1.16509931       1.14922938
Na       5.10769386       2.22216693       3.89737235
Na       2.25815891       2.47716989       4.69623572
Na       6.90584031       4.95378147       0.65225479
Na       1.38596385       7.39489462       5.80130288
Na       0.97519303       3.73052685       0.24364108
Na       9.20654452       6.31226897       2.15272409
Na       8.62835199       3.80882926       7.68802945
Na       3.39834177       7.95277652       2.09807008
Na       6.22401138       0.67646360       1.43246046
Na       8.37483627       0.38103400       8.99855517
Na       2.51918286       1.18827905       7.61107853
Na       6.14601696       6.38544813       3.68183780
F        4.94721077       9.18549571       3.59412440
F        2.88436815       8.65621585       9.68326097
F        0.23752734       5.28543689       8.82884809
F        0.88977198       2.21284033       8.29824406
F        6.91600999       3.26709312       9.11552734
F        5.40993673       7.49969612       6.13314076
F        4.92842000       0.83963232       9.47500176
C        1.36358360       9.38159409       3.82551307
O        1.01931530       9.78757606       2.65680990
O        1.83061408       8.11643538       3.81216605
O        1.15231677       0.35660184       4.86350626
C        7.58971716       1.22354751       5.91054375
O        6.40726863       0.62216576       6.01924520
O        8.43911657       0.50570675       5.14420320
O        7.51604700       2.61584053       6.42071751
C        8.45201487       3.32354903       2.59622527
O        8.28123728       2.10432319       2.09836928
O        8.92493288       4.02410609       1.64978910
O        8.30648715       3.75541845       3.72527642
C        8.81337025       6.19537379       4.84450642
O        0.06975900       5.62229866       4.28608837
O        8.31922745       7.24530879       4.33140883
O        8.37744183       5.49344467       5.96168847
C        7.33056866       7.71418029       0.60855783
O        8.36377731       8.19863874       0.21393022
O        7.25958899       7.14740878       1.79843970
O        6.26409695       7.85935014       9.65627154
C        3.60288332       4.54043193       1.87504138
O        3.43890534       3.97026253       0.65567324
O        4.15389350       3.93166459       2.85660280
O        2.99087832       5.72939145       1.82438434
C        3.42346806       4.64366143       6.82268626
O        3.21705386       5.54408955       5.83048617
O        3.89854695       5.12930759       7.84148455
O        2.88095323       3.42687456       6.79461791
56
Lattice="9.68844266 0.0 0.0 0.0 9.68844266 0.0 0.0 0.0 9.68844266" Properties=species:S:1:pos:R:3 Time=10000.0 virial="-1.4761492 -6.82792942 -4.06754957 -6.82792942 4.270835 1.62486539 -4.06754957 1.62486539 -12.07116774" energy=-307.04390864 stress="0.00955872 -0.00644979 -0.0061549 -0.00644979 0.01312607 0.00190724 -0.0061549 0.00190724 -0.00684911" pbc="T T T"
Na       8.25486335       9.37719329       3.59234142
Na       1.33250906       6.22954153       4.34335116
Na       1.89345250       0.58507622       8.65486511
Na       3.76291176       7.58966628       6.94596897
Na       7.37455945       1.52659143       7.13347575
Na       9.34952442       6.57362922       0.40571352
Na       7.33970978       2.38747877       1.80493077
Na       4.99882064       1.32738474       8.42893218
Na       4.32385300       0.96980552       2.20988857
Na       4.21066808       1.26299370       5.07094408
Na       1.13463316       2.36643041       5.69254626
Na       6.41665307       5.70659155       1.63396937
Na       9.56203727       8.48457256       6.88004100
Na       2.87470061       5.90042977       0.02041281
Na       9.16987609       4.11605013       7.64898686
Na       6.52170171       6.18430240       7.64661787
Na       4.77670312       7.36982193       3.09020898
Na       6.85372213       8.94693578       0.77410776
Na       0.43162922       4.55152542       2.48154761
Na       2.12742024       3.38780345       0.16903626
Na       7.25486595       6.94376573       4.69011672
F        6.28361966       0.23200477       2.74107199
F        5.60089222       6.84768674       9.67889430
F        9.22354691       6.59204268       5.89992496
F        2.91847702       2.39133167       7.41324859
F        1.81202731       7.54094314       0.18033747
F        7.77566027       7.17343012       2.50673820
F        3.96817409       0.09730924       0.06589296
C        1.66438825       9.20665620       4.12708209
O        0.63547593       8.66685600       3.36203700
O        1.79813032       8.62160942       5.32405974
O        2.48021936       0.54258179       3.86681827
C        6.13026442       8.97427626       6.51071405
O        7.41653179       9.08261960       6.65476317
O        5.85097562       7.96681102       5.73315746
O        5.23734311       0.06374526       6.87829604
C        7.62756899       3.72976652       9.17837469
O        7.15964480       4.36621209       8.11018604
O        7.47526918       2.49639903       9.32615106
O        8.32794737       4.42537757       0.42094510
C        7.75244151       3.08657817       4.66241752
O        8.52351215       2.26767466       5.11429158
O        7.83943872       4.42245817       4.79094068
O        6.58251063       2.84700771       4.11043485
C        9.52101573       0.69388942       0.71308974
O        0.42418340       1.75692610       0.89450896
O        8.41907655       0.36267305       1.21874866
O        0.32917806       9.28340094       0.14900946
C        3.44559370       4.38296212       2.32542929
O        2.42406610       4.77653171       1.76705228
O        3.96817120       3.15376113       2.14087244
O        4.19841360       5.05803154       3.12470412
C        2.62192682       4.80634455       6.98947509
O        3.88914220       5.12273013       6.89905676
O        1.92692196       4.65198063       8.05462662
O        2.08984596       4.57222908       5.81280305
56
Lattice="9.75970603 0.0 0.0 0.0 9.75970603 0.0 0.0 0.0 9.75970603" Properties=species:S:1:pos:R:3 Time=11000.0 virial="12.4869635 -7.0919882 4.41334527 -7.0919882 -13.70762392 2.06045757 4.41334527 2.06045757 -2.18507071" energy=-308.35543932 stress="0.02102272 -0.00602814 0.00566027 -0.00602814 -0.00453053 0.0041622 0.00566027 0.0041622 0.00386825" pbc="T T T"
Na       0.00961003       8.08922587       4.37874106
Na       2.72634873       6.41504930       4.42193780
Na       2.12150704       0.66826027       1.09426930
Na       4.17698829       7.65723777       6.80538406
Na       7.09583753       1.53053071       9.05735475
Na       5.38090711       8.92512656       0.54353148
Na       3.44683689       3.50430749       9.28998249
Na       4.93926647       0.66374045       6.86233568
Na       2.04581843       3.40116666       3.57066758
Na       5.91645353       2.78945058       1.57571219
Na       0.90523618       0.73903720       6.58141692
Na       5.37912921       6.17280804       8.60024306
Na       1.15767682       7.68760690       8.53650451
Na       2.56960738       6.67738151       1.33103349
Na       9.44200498       4.43998934       6.83087371
Na       5.31309016       4.00032914       5.06972570
Na       6.12965697       9.31354080       4.07947139
Na       8.35521158       1.61194394       2.67162809
Na       9.16092265       6.36179189       1.37231808
Na       0.77438347       2.32574836       9.31704380
Na       7.88580346       5.13799711       3.31866839
F        2.21995089       2.92208376       1.36721793
F        3.64147991       8.26810388       9.18884156
F        1.18110515       6.67956908       6.54725136
F        1.90530330       0.62279462       8.33827885
F        0.69188483       5.71546366       3.43775202
F        6.90016584       0.58087466       1.41636384
F        5.03722218       2.34658316       9.08124539
C        3.12261039       9.25643071       4.64261405
O        4.27537722       9.21199728       5.07699223
O        2.73903775       8.55131775       3.62159448
O        2.21611714       0.24854188       5.08187831
C        6.76362996       7.12699193       5.95645784
O        7.41872115       7.57404386       4.84847890
O        6.54240453       5.66429917       5.99841220
O        6.15485474       7.84035295       6.85870788
C        8.27462858       3.99691161       0.24958924
O        8.59786390       3.54955535       8.88542093
O        7.57750456       5.20759620       0.21879930
O        8.34057894       3.44639173       1.32647639
C        8.05573642       1.70084845       4.96456222
O        8.01582136       2.98065854       4.58567224
O        6.91818649       1.19589371       5.57068651
O        9.22454466       1.30889430       4.92850101
C        0.26598419       9.26468898       1.34580812
O        9.65539913       9.42903848       2.52853940
O        0.67357334       8.11722604       0.95960479
O        0.12602261       0.55648361       0.58212670
C        4.62666341       4.83740143       2.33490554
O        4.45607406       4.83498525       1.02017828
O        5.74753399       4.88177795       2.81786839
O        3.71320629       5.02644448       3.15280466
C        2.82521502       4.56291529       6.83763117
O        3.93372566       4.80384336       7.40072303
O        1.74474675       4.46710548       7.56156587
O        2.63412646       4.39514614       5.57923729
56
Lattice="9.81346994 0.0 0.0 0.0 9.81346994 0.0 0.0 0.0 9.81346994" Properties=species:S:1:pos:R:3 Time=12000.0 virial="5.71029339 4.47157678 10.35492721 4.47157678 -7.89735468 1.93267905 10.35492721 1.93267905 -2.48404438" energy=-305.75846854 stress="0.01427305 0.00584276 0.01069884 0.00584276 -0.00219559 -1.74e-05 0.01069884 -1.74e-05 0.00834177" pbc="T T T"
Na       7.64366953       1.02177620       4.37837251
Na       3.44596477       6.40674184       4.83622224
Na       2.36533207       1.83203508       9.15916574
Na       3.14344664       7.44586940       7.55012755
Na       7.78007577       9.34498764       9.19496741
Na       5.93249900       7.39038187       1.32130956
Na       5.25380108       4.47686902       9.79561569
Na       5.03373476       0.79381347       7.89377003
Na       1.32917376       2.16044449       4.55925274
Na       8.21593926       1.84097536       1.40622556
Na       1.10475871       0.24321257       6.54299297
Na       9.72243824       4.63595492       7.08350610
Na       1.05153144       8.80936473       9.54653999
Na       2.47615899       8.62345957       2.91342622
Na       6.72438596       8.24446795       7.34256503
Na       5.59379063       2.49691844       4.28729280
Na       4.23003848       0.74983024       1.72638391
Na       1.33406129       2.48426041       1.38988488
Na       0.54713993       5.72292959       1.90552831
Na       8.66158371       2.21694695       7.74122476
Na       5.75830166       4.84522644       3.40578034
F        2.38400895       0.27250520       1.22671463
F        4.63099843       7.49265076       9.66454792
F        7.21063665       0.74279883       7.15369626
F        2.67944680       9.75057978       8.43458700
F        1.00551730       7.58646860       6.96561585
F        6.00487463       0.86692576       0.14795237
F        9.55420627       0.73627601       9.16724858
C        4.48492133       9.46791437       4.98912200
O        5.46220270       0.44441720       5.08073541
O        3.82288839       9.70289789       3.85119995
O        4.14283144       8.65046601       5.89438603
C        6.31936072       5.33246756       6.31928128
O        6.23475904       4.23639492       5.66765132
O        5.13444691       5.80633224       6.97757920
O        7.22494660       6.10116877       6.55113028
C        8.16665969       4.97027269       9.34843679
O        8.20578293       4.09103860       8.36594345
O        7.00056706       5.54831384       9.77503294
O        9.08078948       5.32348042       0.31023955
C        8.95066939       3.46206558       4.00199556
O        7.81592834       3.38724643       3.46827063
O        9.22720053       2.93849168       5.32352929
O        0.14579571       3.94393708       3.31847961
C        8.94728993       8.73727415       2.44517097
O        9.05513867       9.70420850       3.26655348
O        0.14373603       7.94685127       2.17655618
O        7.84200458       8.08130411       2.26381025
C        3.11601632       4.56481745       1.76619054
O        2.78040129       4.11144923       0.71179598
O        3.65784696       3.76983404       2.61153055
O        3.20426384       5.78533827       2.22697663
C        2.37718003       3.51543533       6.78995799
O        3.15521250       3.92204768       7.66036698
O        1.18242730       3.04775657       7.00188113
O        2.92957103       3.39325662       5.58980725
56
Lattice="9.85381347 0.0 0.0 0.0 9.85381347 0.0 0.0 0.0 9.85381347" Properties=species:S:1:pos:R:3 Time=13000.0 virial="-8.31710256 -2.77243722 -1.48580887 -2.77243722 8.70302261 1.2050875 -1.48580887 1.2050875 -9.13813649" energy=-307.17724068 stress="-0.00316386 -0.00397526 -0.00147694 -0.00397526 0.01700464 0.00053515 -0.00147694 0.00053515 -0.00240503" pbc="T T T"
Na       2.93060595       8.76441888       3.54391495
Na       2.43039394       4.57704074       5.83123408
Na       0.84794099       0.43684292       7.90620619
Na       5.20048023       7.45925817       7.52831321
Na       5.88988359       7.60775472       2.11704926
Na       6.25412908       0.82793499       2.30218246
Na       2.21898246       2.98634390       0.75251176
Na       3.85905758       1.55534573       7.58294869
Na       1.79634402       2.67309476       4.11224380
Na       7.55452781       2.99773542       9.53679879
Na       9.39456788       0.32687120       4.44038268
Na       1.20193780       6.43497257       7.61422365
Na       8.86446818       8.37201807       0.10214343
Na       3.05910835       9.43424775       0.19209176
Na       8.49418816       7.66266762       5.94945269
Na       7.67479832       1.99225584       6.40204702
Na       5.57209705       5.31805027       9.74158986
Na       0.88452115       1.11297321       1.19606906
Na       0.81345386       5.93258958       1.14855133
Na       7.00331170       9.41511196       8.55810138
Na       6.19371470       5.27332486       3.70969200
F        2.66694850       1.22089098       2.73273955
F        5.66422138       9.05419396       0.75366407
F        8.56078353       9.61209301       7.44300251
F        3.24267437       9.16816883       7.40933945
F        0.84590863       9.08319363       0.12713632
F        3.75702251       1.61497561       0.18427059
F        7.92730530       1.08987356       0.34773907
C        6.18419706       9.46013583       5.08818627
O        7.19303703       0.30555735       4.84235970
O        5.60417264       9.17241471       6.23053039
O        5.61241369       8.97725360       3.98826801
C        5.61343248       4.07267014       6.15814606
O        5.72731672       3.10736518       7.07019546
O        5.07028363       5.05978301       6.61880887
O        6.03991162       3.53440241       5.05172103
C        8.00321671       6.26235210       9.03475115
O        7.71257956       5.08065842       9.47905639
O        7.06042690       7.30500203       9.43403938
O        8.87963398       6.63595896       8.11949815
C        8.91712146       3.38363905       2.40619040
O        9.81119529       4.25073227       2.15687076
O        7.59192942       3.48655893       2.30356856
O        9.56532022       2.41757430       3.14912335
C        9.33627566       7.71238101       3.27299897